 Gaussian 09, Revision A.02,
 Gaussian 09:  EM64L-G09RevA.02 11-Jun-2009

 ----------------------------------
 #m062x/6-31+g** gfinput iop(6/7=3)
 ----------------------------------

 -------
 comment
 -------
 Symbolic Z-matrix:
 Charge =  0 Multiplicity = 1

                         Standard orientation:
 ---------------------------------------------------------------------
 Center     Atomic      Atomic             Coordinates (Angstroms)
 Number     Number       Type             X           Y           Z
 ---------------------------------------------------------------------
      1          6           0       -1.273872    0.708965   -0.092088
      2          1           0       -0.924832    1.332952   -0.909488
      3          1           0       -2.049897    1.134464    0.542351
      4          7           0       -0.303467   -0.107735    0.626305
      5          7           0       -1.211717   -0.713019   -0.350116
      6          1           0       -1.878139   -1.243898    0.214678
      7         17           0        1.358964    0.015763   -0.072255
 ---------------------------------------------------------------------

 SCF Done:  E(RM062X) =  -609.410256385     A.U. after   13 cycles

 The electronic state is 1-A.
 Alpha  occ. eigenvalues -- -102.68050 -14.87356 -14.82421 -10.63722  -9.82543
 Alpha  occ. eigenvalues --   -7.55054  -7.54191  -7.54187  -1.19082  -0.94881
 Alpha  occ. eigenvalues --   -0.80726  -0.75145  -0.62371  -0.57842  -0.49220
 Alpha  occ. eigenvalues --   -0.47147  -0.42525  -0.37187  -0.36664  -0.34476
 Alpha virt. eigenvalues --   -0.01314   0.01522   0.02993   0.03565   0.05242
 Alpha virt. eigenvalues --    0.09224   0.09975   0.10717   0.11466   0.13037
 Alpha virt. eigenvalues --    0.14417   0.15239   0.17194   0.18056   0.19259

 Mulliken atomic charges:
              1
     1  C   -0.141525
     2  H    0.193961
     3  H    0.179184
     4  N   -0.211166
     5  N   -0.377203
     6  H    0.336059
     7  Cl   0.020690
 Sum of Mulliken atomic charges =   0.00000

 Dipole moment (field-independent basis, Debye):
    X=             -2.8135    Y=              1.0780    Z=              0.2127  Tot=              3.0204
 Quadrupole moment (field-independent basis, Debye-Ang):
   XX=            -25.9287   YY=            -29.2321   ZZ=            -33.3911
   XY=             -0.1976   XZ=             -2.1098   YZ=             -1.7798

 Normal termination of Gaussian 09 at Tue Nov  6 10:46:57 2012.
