 Gaussian 09, Revision A.02,
 Gaussian 09:  EM64L-G09RevA.02 11-Jun-2009

 ----------------------------------
 #m062x/6-31+g** gfinput iop(6/7=3)
 ----------------------------------

 -------
 comment
 -------
 Symbolic Z-matrix:
 Charge =  0 Multiplicity = 1

                         Standard orientation:
 ---------------------------------------------------------------------
 Center     Atomic      Atomic             Coordinates (Angstroms)
 Number     Number       Type             X           Y           Z
 ---------------------------------------------------------------------
      1          6           0        1.284502    0.672624   -0.175586
      2          1           0        2.106295    1.167892    0.334986
      3          1           0        0.865858    1.186508   -1.036111
      4          7           0        0.331999   -0.037264    0.694800
      5          7           0        1.286792   -0.772642   -0.120718
      6          1           0        0.829076   -1.193693   -0.931683
      7         17           0       -1.343516    0.027817   -0.078367
 ---------------------------------------------------------------------

 SCF Done:  E(RM062X) =  -609.404366148     A.U. after   13 cycles

 The electronic state is 1-A.
 Alpha  occ. eigenvalues -- -102.68778 -14.88263 -14.82840 -10.63791  -9.83297
 Alpha  occ. eigenvalues --   -7.55778  -7.54970  -7.54944  -1.19439  -0.94646
 Alpha  occ. eigenvalues --   -0.81826  -0.75769  -0.63218  -0.56669  -0.49274
 Alpha  occ. eigenvalues --   -0.46979  -0.43912  -0.39718  -0.37255  -0.33327
 Alpha virt. eigenvalues --   -0.03302   0.01759   0.02899   0.04321   0.04769
 Alpha virt. eigenvalues --    0.08851   0.09499   0.09762   0.11487   0.12796
 Alpha virt. eigenvalues --    0.13694   0.14589   0.16700   0.17569   0.19638

 Mulliken atomic charges:
              1
     1  C   -0.183504
     2  H    0.190483
     3  H    0.187499
     4  N   -0.142566
     5  N   -0.336092
     6  H    0.334424
     7  Cl  -0.050244
 Sum of Mulliken atomic charges =   0.00000

 Dipole moment (field-independent basis, Debye):
    X=              1.1102    Y=              1.1399    Z=             -2.2426  Tot=              2.7498
 Quadrupole moment (field-independent basis, Debye-Ang):
   XX=            -31.6291   YY=            -29.9829   ZZ=            -31.1920
   XY=              3.1993   XZ=             -0.9663   YZ=              1.3898

 Normal termination of Gaussian 09 at Tue Nov  6 10:46:51 2012.
