 Gaussian 09, Revision A.02,
 Gaussian 09:  EM64L-G09RevA.02 11-Jun-2009

 ----------------------------------
 #m062x/6-31+g** gfinput iop(6/7=3)
 ----------------------------------

 -------------------
 Title Card Required
 -------------------
 Symbolic Z-matrix:
 Charge =  0 Multiplicity = 1

                         Standard orientation:
 ---------------------------------------------------------------------
 Center     Atomic      Atomic             Coordinates (Angstroms)
 Number     Number       Type             X           Y           Z
 ---------------------------------------------------------------------
      1          6           0        1.441500   -0.686347    0.027145
      2          1           0        1.827853   -1.213156   -0.848570
      3          1           0        1.827777   -1.036289    0.992274
      4          7           0        0.222665   -0.057370   -0.032592
      5          7           0        1.320046    0.841148   -0.149216
      6          1           0        1.495122    1.237088    0.791993
      7         17           0       -1.446984   -0.020942    0.010240
 ---------------------------------------------------------------------

 SCF Done:  E(RM062X) =  -609.344867774     A.U. after   13 cycles

 The electronic state is 1-A.
 Alpha  occ. eigenvalues -- -102.71861 -14.82173 -14.81935 -10.64069  -9.86036
 Alpha  occ. eigenvalues --   -7.58653  -7.57690  -7.57607  -1.17392  -0.99281
 Alpha  occ. eigenvalues --   -0.80603  -0.72928  -0.62044  -0.58072  -0.51331
 Alpha  occ. eigenvalues --   -0.44887  -0.43940  -0.40075  -0.37284  -0.26515
 Alpha virt. eigenvalues --   -0.00783   0.02004   0.03108   0.04080   0.05142
 Alpha virt. eigenvalues --    0.07991   0.09970   0.10098   0.11570   0.12057
 Alpha virt. eigenvalues --    0.13714   0.15260   0.18179   0.20289   0.20746

 Mulliken atomic charges:
              1
     1  C   -0.176054
     2  H    0.169198
     3  H    0.153526
     4  N   -0.229289
     5  N   -0.407021
     6  H    0.295550
     7  Cl   0.194091
 Sum of Mulliken atomic charges =   0.00000

 Dipole moment (field-independent basis, Debye):
    X=              0.9039    Y=             -1.2036    Z=              1.5954  Tot=              2.1934
 Quadrupole moment (field-independent basis, Debye-Ang):
   XX=            -28.1577   YY=            -30.3763   ZZ=            -31.0955
   XY=             -2.3836   XZ=              2.5248   YZ=              2.3232

 Normal termination of Gaussian 09 at Tue Nov  6 10:47:03 2012.
